<?xml version="1.0" encoding="UTF-8"?>

<!-- generated on 2025-06-05 23:05:35 by Eclipse SUMO GUI Version 1.23.1
<sumoConfiguration xmlns:xsi="http://www.w3.org/2001/XMLSchema-instance" xsi:noNamespaceSchemaLocation="http://sumo.dlr.de/xsd/sumoConfiguration.xsd">

    <input>
        <net-file value="/home/miachou/IIV25_Final_project/lane_change_expts/resources/mp_network/mp.net.xml"/>
        <route-files value="/home/miachou/IIV25_Final_project/lane_change_expts/resources/mp_network/mp.rou.xml"/>
    </input>

    <output>
        <fcd-output value="/home/miachou/IIV25_Final_project/lane_change_expts/resources/mp_network/mp_fcd.xml"/>
        <tripinfo-output value="/home/miachou/IIV25_Final_project/lane_change_expts/resources/mp_network/mp_tripinfo.xml"/>
        <lanechange-output value="/home/miachou/IIV25_Final_project/lane_change_expts/resources/mp_network/mp_lc.xml"/>
    </output>

    <time>
        <begin value="0"/>
        <end value="3600"/>
        <step-length value="0.5"/>
    </time>

    <report>
        <verbose value="true"/>
    </report>

    <traci_server>
        <remote-port value="36179"/>
    </traci_server>

    <gui_only>
        <delay value="160"/>
    </gui_only>

</sumoConfiguration>
-->

<fcd-export xmlns:xsi="http://www.w3.org/2001/XMLSchema-instance" xsi:noNamespaceSchemaLocation="http://sumo.dlr.de/xsd/fcd_file.xsd">
    <timestep time="0.00">
        <vehicle id="main0.0" x="8.50" y="0.00" angle="90.00" type="human" speed="13.37" pos="5.10" lane="loop_0" slope="0.00"/>
        <vehicle id="main1.0" x="8.50" y="3.20" angle="90.00" type="cav" speed="11.84" pos="5.10" lane="loop_1" slope="0.00"/>
        <vehicle id="main2.0" x="8.50" y="6.40" angle="90.00" type="human" speed="0.68" pos="5.10" lane="loop_2" slope="0.00"/>
        <vehicle id="main3.0" x="8.50" y="9.60" angle="90.00" type="cav" speed="9.83" pos="5.10" lane="loop_3" slope="0.00"/>
    </timestep>
    <timestep time="0.50">
        <vehicle id="main0.0" x="20.10" y="0.00" angle="90.00" type="human" speed="13.92" pos="12.06" lane="loop_0" slope="0.00"/>
        <vehicle id="main1.0" x="19.41" y="3.20" angle="90.00" type="cav" speed="13.09" pos="11.65" lane="loop_1" slope="0.00"/>
        <vehicle id="main2.0" x="9.67" y="6.40" angle="90.00" type="human" speed="1.41" pos="5.80" lane="loop_2" slope="0.00"/>
        <vehicle id="main3.0" x="17.73" y="9.60" angle="90.00" type="cav" speed="11.08" pos="10.64" lane="loop_3" slope="0.00"/>
    </timestep>
    <timestep time="1.00">
        <vehicle id="main0.0" x="32.38" y="0.00" angle="90.00" type="human" speed="14.74" pos="19.43" lane="loop_0" slope="0.00"/>
        <vehicle id="main1.0" x="29.51" y="3.20" angle="90.00" type="cav" speed="12.12" pos="17.71" lane="loop_1" slope="0.00"/>
        <vehicle id="main2.0" x="10.56" y="6.40" angle="90.00" type="human" speed="1.07" pos="6.34" lane="loop_2" slope="0.00"/>
        <vehicle id="main3.0" x="28.01" y="6.40" angle="90.00" type="cav" speed="12.33" pos="16.80" lane="loop_2" slope="0.00"/>
    </timestep>
    <timestep time="1.50">
        <vehicle id="main0.0" x="44.87" y="0.00" angle="90.00" type="human" speed="14.99" pos="26.92" lane="loop_0" slope="0.00"/>
        <vehicle id="main0.1" x="8.50" y="0.00" angle="90.00" type="human" speed="8.85" pos="5.10" lane="loop_0" slope="0.00"/>
        <vehicle id="main1.0" x="38.80" y="3.20" angle="90.00" type="cav" speed="11.15" pos="23.28" lane="loop_1" slope="0.00"/>
        <vehicle id="main2.0" x="11.96" y="6.40" angle="90.00" type="human" speed="1.68" pos="7.18" lane="loop_2" slope="0.00"/>
        <vehicle id="main3.0" x="39.32" y="6.40" angle="90.00" type="cav" speed="13.58" pos="23.59" lane="loop_2" slope="0.00"/>
    </timestep>
    <timestep time="2.00">
        <vehicle id="main0.0" x="57.27" y="0.00" angle="90.00" type="human" speed="14.88" pos="34.36" lane="loop_0" slope="0.00"/>
        <vehicle id="main0.1" x="16.46" y="0.00" angle="90.00" type="human" speed="9.55" pos="9.88" lane="loop_0" slope="0.00"/>
        <vehicle id="main1.0" x="46.21" y="3.20" angle="90.00" type="cav" speed="8.90" pos="27.73" lane="loop_1" slope="0.00"/>
        <vehicle id="main2.0" x="14.03" y="6.40" angle="90.00" type="human" speed="2.48" pos="8.42" lane="loop_2" slope="0.00"/>
        <vehicle id="main3.0" x="51.68" y="6.40" angle="90.00" type="cav" speed="14.83" pos="31.01" lane="loop_2" slope="0.00"/>
        <vehicle id="main3.1" x="8.50" y="9.60" angle="90.00" type="human" speed="11.15" pos="5.10" lane="loop_3" slope="0.00"/>
    </timestep>
    <timestep time="2.50">
        <vehicle id="main0.0" x="69.76" y="0.00" angle="90.00" type="human" speed="14.99" pos="41.86" lane="loop_0" slope="0.00"/>
        <vehicle id="main0.1" x="24.06" y="0.00" angle="90.00" type="human" speed="9.12" pos="14.44" lane="loop_0" slope="0.00"/>
        <vehicle id="main1.0" x="54.67" y="0.00" angle="90.00" type="cav" speed="10.15" pos="32.80" lane="loop_0" slope="0.00"/>
        <vehicle id="main2.0" x="16.77" y="6.40" angle="90.00" type="human" speed="3.28" pos="10.06" lane="loop_2" slope="0.00"/>
        <vehicle id="main3.0" x="65.08" y="6.40" angle="90.00" type="cav" speed="16.08" pos="39.05" lane="loop_2" slope="0.00"/>
        <vehicle id="main3.1" x="18.58" y="9.60" angle="90.00" type="human" speed="12.09" pos="11.15" lane="loop_3" slope="0.00"/>
    </timestep>
    <timestep time="3.00">
        <vehicle id="main0.0" x="82.16" y="0.00" angle="90.00" type="human" speed="14.88" pos="49.30" lane="loop_0" slope="0.00"/>
        <vehicle id="main0.1" x="32.19" y="0.00" angle="90.00" type="human" speed="9.75" pos="19.31" lane="loop_0" slope="0.00"/>
        <vehicle id="main0.2" x="8.50" y="0.00" angle="90.00" type="human" speed="8.68" pos="5.10" lane="loop_0" slope="0.00"/>
        <vehicle id="main1.0" x="64.14" y="0.00" angle="90.00" type="cav" speed="11.36" pos="38.48" lane="loop_0" slope="0.00"/>
        <vehicle id="main2.0" x="20.14" y="6.40" angle="90.00" type="human" speed="4.04" pos="12.08" lane="loop_2" slope="0.00"/>
        <vehicle id="main3.0" x="79.52" y="3.20" angle="90.00" type="cav" speed="17.33" pos="47.71" lane="loop_1" slope="0.00"/>
        <vehicle id="main3.1" x="29.25" y="9.60" angle="90.00" type="human" speed="12.81" pos="17.55" lane="loop_3" slope="0.00"/>
    </timestep>
    <timestep time="3.50">
        <vehicle id="main0.0" x="94.66" y="0.00" angle="90.00" type="human" speed="15.00" pos="56.79" lane="loop_0" slope="0.00"/>
        <vehicle id="main0.1" x="40.95" y="0.00" angle="90.00" type="human" speed="10.52" pos="24.57" lane="loop_0" slope="0.00"/>
        <vehicle id="main0.2" x="15.55" y="0.00" angle="90.00" type="human" speed="8.46" pos="9.33" lane="loop_0" slope="0.00"/>
        <vehicle id="main1.0" x="73.95" y="0.00" angle="90.00" type="cav" speed="11.77" pos="44.37" lane="loop_0" slope="0.00"/>
        <vehicle id="main2.0" x="24.12" y="6.40" angle="90.00" type="human" speed="4.78" pos="14.47" lane="loop_2" slope="0.00"/>
        <vehicle id="main2.1" x="8.50" y="6.40" angle="90.00" type="cav" speed="0.12" pos="5.10" lane="loop_2" slope="0.00"/>
        <vehicle id="main3.0" x="94.29" y="3.20" angle="90.00" type="cav" speed="17.72" pos="56.57" lane="loop_1" slope="0.00"/>
        <vehicle id="main3.1" x="40.66" y="9.60" angle="90.00" type="human" speed="13.69" pos="24.40" lane="loop_3" slope="0.00"/>
    </timestep>
    <timestep time="4.00">
        <vehicle id="main0.0" x="106.92" y="0.00" angle="90.00" type="human" speed="14.72" pos="64.15" lane="loop_0" slope="0.00"/>
        <vehicle id="main0.1" x="50.52" y="0.00" angle="90.00" type="human" speed="11.49" pos="30.31" lane="loop_0" slope="0.00"/>
        <vehicle id="main0.2" x="23.07" y="0.00" angle="90.00" type="human" speed="9.02" pos="13.84" lane="loop_0" slope="0.00"/>
        <vehicle id="main1.0" x="84.22" y="0.00" angle="90.00" type="cav" speed="12.33" pos="50.53" lane="loop_0" slope="0.00"/>
        <vehicle id="main2.0" x="28.74" y="6.40" angle="90.00" type="human" speed="5.54" pos="17.24" lane="loop_2" slope="0.00"/>
        <vehicle id="main2.1" x="9.64" y="3.20" angle="90.00" type="cav" speed="1.37" pos="5.79" lane="loop_1" slope="0.00"/>
        <vehicle id="main2.2" x="8.50" y="6.40" angle="90.00" type="human" speed="5.09" pos="5.10" lane="loop_2" slope="0.00"/>
        <vehicle id="main3.0" x="109.05" y="3.20" angle="90.00" type="cav" speed="17.72" pos="65.43" lane="loop_1" slope="0.00"/>
        <vehicle id="main3.1" x="52.74" y="9.60" angle="90.00" type="human" speed="14.50" pos="31.65" lane="loop_3" slope="0.00"/>
        <vehicle id="main3.2" x="8.50" y="9.60" angle="90.00" type="cav" speed="9.32" pos="5.10" lane="loop_3" slope="0.00"/>
    </timestep>
    <timestep time="4.50">
        <vehicle id="main0.0" x="119.29" y="0.00" angle="90.00" type="human" speed="14.84" pos="71.57" lane="loop_0" slope="0.00"/>
        <vehicle id="main0.1" x="60.87" y="0.00" angle="90.00" type="human" speed="12.42" pos="36.52" lane="loop_0" slope="0.00"/>
        <vehicle id="main0.2" x="31.20" y="0.00" angle="90.00" type="human" speed="9.76" pos="18.72" lane="loop_0" slope="0.00"/>
        <vehicle id="main0.3" x="8.50" y="0.00" angle="90.00" type="human" speed="6.78" pos="5.10" lane="loop_0" slope="0.00"/>
        <vehicle id="main1.0" x="94.59" y="0.00" angle="90.00" type="cav" speed="12.43" pos="56.75" lane="loop_0" slope="0.00"/>
        <vehicle id="main2.0" x="33.79" y="6.40" angle="90.00" type="human" speed="6.05" pos="20.27" lane="loop_2" slope="0.00"/>
        <vehicle id="main2.1" x="11.83" y="3.20" angle="90.00" type="cav" speed="2.62" pos="7.10" lane="loop_1" slope="0.00"/>
        <vehicle id="main2.2" x="12.51" y="6.40" angle="90.00" type="human" speed="4.81" pos="7.51" lane="loop_2" slope="0.00"/>
        <vehicle id="main3.0" x="123.82" y="3.20" angle="90.00" type="cav" speed="17.72" pos="74.29" lane="loop_1" slope="0.00"/>
        <vehicle id="main3.1" x="64.87" y="9.60" angle="90.00" type="human" speed="14.55" pos="38.92" lane="loop_3" slope="0.00"/>
        <vehicle id="main3.2" x="17.31" y="9.60" angle="90.00" type="cav" speed="10.57" pos="10.39" lane="loop_3" slope="0.00"/>
    </timestep>
    <timestep time="5.00">
        <vehicle id="main0.0" x="131.66" y="0.00" angle="90.00" type="human" speed="14.85" pos="79.00" lane="loop_0" slope="0.00"/>
        <vehicle id="main0.1" x="70.91" y="3.20" angle="90.00" type="human" speed="12.05" pos="42.55" lane="loop_1" slope="0.00"/>
        <vehicle id="main0.2" x="39.83" y="0.00" angle="90.00" type="human" speed="10.35" pos="23.90" lane="loop_0" slope="0.00"/>
        <vehicle id="main0.3" x="14.61" y="0.00" angle="90.00" type="human" speed="7.34" pos="8.77" lane="loop_0" slope="0.00"/>
        <vehicle id="main1.0" x="105.32" y="0.00" angle="90.00" type="cav" speed="12.88" pos="63.19" lane="loop_0" slope="0.00"/>
        <vehicle id="main2.0" x="38.83" y="6.40" angle="90.00" type="human" speed="6.05" pos="23.30" lane="loop_2" slope="0.00"/>
        <vehicle id="main2.1" x="15.05" y="3.20" angle="90.00" type="cav" speed="3.87" pos="9.03" lane="loop_1" slope="0.00"/>
        <vehicle id="main2.2" x="17.00" y="6.40" angle="90.00" type="human" speed="5.39" pos="10.20" lane="loop_2" slope="0.00"/>
        <vehicle id="main3.0" x="138.59" y="3.20" angle="90.00" type="cav" speed="17.72" pos="83.15" lane="loop_1" slope="0.00"/>
        <vehicle id="main3.1" x="77.01" y="9.60" angle="90.00" type="human" speed="14.57" pos="46.21" lane="loop_3" slope="0.00"/>
        <vehicle id="main3.2" x="27.16" y="9.60" angle="90.00" type="cav" speed="11.82" pos="16.30" lane="loop_3" slope="0.00"/>
    </timestep>
    <timestep time="5.50">
        <vehicle id="main0.0" x="143.99" y="0.00" angle="90.00" type="human" speed="14.80" pos="86.40" lane="loop_0" slope="0.00"/>
        <vehicle id="main0.1" x="81.67" y="3.20" angle="90.00" type="human" speed="12.90" pos="49.00" lane="loop_1" slope="0.00"/>
        <vehicle id="main0.2" x="49.19" y="0.00" angle="90.00" type="human" speed="11.23" pos="29.51" lane="loop_0" slope="0.00"/>
        <vehicle id="main0.3" x="18.85" y="0.00" angle="90.00" type="human" speed="5.09" pos="11.31" lane="loop_0" slope="0.00"/>
        <vehicle id="main1.0" x="116.29" y="0.00" angle="90.00" type="cav" speed="13.17" pos="69.78" lane="loop_0" slope="0.00"/>
        <vehicle id="main2.0" x="43.88" y="6.40" angle="90.00" type="human" speed="6.05" pos="26.33" lane="loop_2" slope="0.00"/>
        <vehicle id="main2.1" x="19.32" y="3.20" angle="90.00" type="cav" speed="5.12" pos="11.59" lane="loop_1" slope="0.00"/>
        <vehicle id="main2.2" x="21.56" y="6.40" angle="90.00" type="human" speed="5.47" pos="12.94" lane="loop_2" slope="0.00"/>
        <vehicle id="main2.3" x="8.50" y="6.40" angle="90.00" type="cav" speed="2.37" pos="5.10" lane="loop_2" slope="0.00"/>
        <vehicle id="main3.0" x="153.35" y="3.20" angle="90.00" type="cav" speed="17.72" pos="92.01" lane="loop_1" slope="0.00"/>
        <vehicle id="main3.1" x="89.18" y="9.60" angle="90.00" type="human" speed="14.60" pos="53.51" lane="loop_3" slope="0.00"/>
        <vehicle id="main3.2" x="38.06" y="9.60" angle="90.00" type="cav" speed="13.07" pos="22.83" lane="loop_3" slope="0.00"/>
    </timestep>
    <timestep time="6.00">
        <vehicle id="main0.0" x="156.37" y="0.00" angle="90.00" type="human" speed="14.85" pos="93.82" lane="loop_0" slope="0.00"/>
        <vehicle id="main0.1" x="92.97" y="3.20" angle="90.00" type="human" speed="13.56" pos="55.78" lane="loop_1" slope="0.00"/>
        <vehicle id="main0.2" x="59.32" y="0.00" angle="90.00" type="human" speed="12.15" pos="35.59" lane="loop_0" slope="0.00"/>
        <vehicle id="main0.3" x="21.22" y="0.00" angle="90.00" type="human" speed="2.84" pos="12.73" lane="loop_0" slope="0.00"/>
        <vehicle id="main0.4" x="8.50" y="0.00" angle="90.00" type="cav" speed="0.42" pos="5.10" lane="loop_0" slope="0.00"/>
        <vehicle id="main1.0" x="127.43" y="0.00" angle="90.00" type="cav" speed="13.36" pos="76.46" lane="loop_0" slope="0.00"/>
        <vehicle id="main2.0" x="48.92" y="3.20" angle="90.00" type="human" speed="6.05" pos="29.35" lane="loop_1" slope="0.00"/>
        <vehicle id="main2.1" x="24.63" y="3.20" angle="90.00" type="cav" speed="6.37" pos="14.78" lane="loop_1" slope="0.00"/>
        <vehicle id="main2.2" x="26.37" y="6.40" angle="90.00" type="human" speed="5.76" pos="15.82" lane="loop_2" slope="0.00"/>
        <vehicle id="main2.3" x="10.48" y="3.20" angle="90.00" type="cav" speed="2.37" pos="6.29" lane="loop_1" slope="0.00"/>
        <vehicle id="main3.0" x="168.12" y="3.20" angle="90.00" type="cav" speed="17.72" pos="100.87" lane="loop_1" slope="0.00"/>
        <vehicle id="main3.1" x="101.53" y="9.60" angle="90.00" type="human" speed="14.83" pos="60.92" lane="loop_3" slope="0.00"/>
        <vehicle id="main3.2" x="49.99" y="9.60" angle="90.00" type="cav" speed="14.32" pos="30.00" lane="loop_3" slope="0.00"/>
        <vehicle id="main3.3" x="8.50" y="9.60" angle="90.00" type="cav" speed="1.21" pos="5.10" lane="loop_3" slope="0.00"/>
    </timestep>
    <timestep time="6.50">
        <vehicle id="main0.0" x="168.82" y="0.00" angle="90.00" type="human" speed="14.94" pos="101.29" lane="loop_0" slope="0.00"/>
        <vehicle id="main0.1" x="104.76" y="3.20" angle="90.00" type="human" speed="14.15" pos="62.86" lane="loop_1" slope="0.00"/>
        <vehicle id="main0.2" x="70.14" y="0.00" angle="90.00" type="human" speed="12.99" pos="42.09" lane="loop_0" slope="0.00"/>
        <vehicle id="main0.3" x="24.21" y="0.00" angle="90.00" type="human" speed="3.59" pos="14.53" lane="loop_0" slope="0.00"/>
        <vehicle id="main0.4" x="8.85" y="0.00" angle="90.00" type="cav" speed="0.42" pos="5.31" lane="loop_0" slope="0.00"/>
        <vehicle id="main1.0" x="138.77" y="0.00" angle="90.00" type="cav" speed="13.60" pos="83.26" lane="loop_0" slope="0.00"/>
        <vehicle id="main2.0" x="54.58" y="3.20" angle="90.00" type="human" speed="6.79" pos="32.75" lane="loop_1" slope="0.00"/>
        <vehicle id="main2.1" x="30.10" y="3.20" angle="90.00" type="cav" speed="6.57" pos="18.06" lane="loop_1" slope="0.00"/>
        <vehicle id="main2.2" x="31.60" y="6.40" angle="90.00" type="human" speed="6.28" pos="18.96" lane="loop_2" slope="0.00"/>
        <vehicle id="main2.3" x="13.32" y="3.20" angle="90.00" type="cav" speed="3.41" pos="7.99" lane="loop_1" slope="0.00"/>
        <vehicle id="main3.0" x="182.89" y="3.20" angle="90.00" type="cav" speed="17.72" pos="109.73" lane="loop_1" slope="0.00"/>
        <vehicle id="main3.1" x="113.77" y="9.60" angle="90.00" type="human" speed="14.68" pos="68.26" lane="loop_3" slope="0.00"/>
        <vehicle id="main3.2" x="62.97" y="6.40" angle="90.00" type="cav" speed="15.57" pos="37.78" lane="loop_2" slope="0.00"/>
        <vehicle id="main3.3" x="10.55" y="6.40" angle="90.00" type="cav" speed="2.46" pos="6.33" lane="loop_2" slope="0.00"/>
    </timestep>
    <timestep time="7.00">
        <vehicle id="main0.0" x="181.15" y="0.00" angle="90.00" type="human" speed="14.79" pos="108.69" lane="loop_0" slope="0.00"/>
        <vehicle id="main0.1" x="116.87" y="3.20" angle="90.00" type="human" speed="14.52" pos="70.12" lane="loop_1" slope="0.00"/>
        <vehicle id="main0.2" x="81.69" y="0.00" angle="90.00" type="human" speed="13.86" pos="49.01" lane="loop_0" slope="0.00"/>
        <vehicle id="main0.3" x="27.37" y="0.00" angle="90.00" type="human" speed="3.79" pos="16.42" lane="loop_0" slope="0.00"/>
        <vehicle id="main0.4" x="10.25" y="0.00" angle="90.00" type="cav" speed="1.67" pos="6.15" lane="loop_0" slope="0.00"/>
        <vehicle id="main1.0" x="150.30" y="0.00" angle="90.00" type="cav" speed="13.84" pos="90.18" lane="loop_0" slope="0.00"/>
        <vehicle id="main2.0" x="61.00" y="3.20" angle="90.00" type="human" speed="7.70" pos="36.60" lane="loop_1" slope="0.00"/>
        <vehicle id="main2.1" x="35.89" y="3.20" angle="90.00" type="cav" speed="6.95" pos="21.54" lane="loop_1" slope="0.00"/>
        <vehicle id="main2.2" x="37.37" y="6.40" angle="90.00" type="human" speed="6.92" pos="22.42" lane="loop_2" slope="0.00"/>
        <vehicle id="main2.3" x="17.12" y="3.20" angle="90.00" type="cav" speed="4.57" pos="10.27" lane="loop_1" slope="0.00"/>
        <vehicle id="main3.0" x="197.65" y="3.20" angle="90.00" type="cav" speed="17.72" pos="118.59" lane="loop_1" slope="0.00"/>
        <vehicle id="main3.1" x="126.00" y="9.60" angle="90.00" type="human" speed="14.68" pos="75.60" lane="loop_3" slope="0.00"/>
        <vehicle id="main3.2" x="76.99" y="6.40" angle="90.00" type="cav" speed="16.82" pos="46.19" lane="loop_2" slope="0.00"/>
        <vehicle id="main3.3" x="13.63" y="6.40" angle="90.00" type="cav" speed="3.71" pos="8.18" lane="loop_2" slope="0.00"/>
    </timestep>
    <timestep time="7.50">
        <vehicle id="main0.0" x="193.41" y="0.00" angle="90.00" type="human" speed="14.71" pos="116.05" lane="loop_0" slope="0.00"/>
        <vehicle id="main0.1" x="129.22" y="3.20" angle="90.00" type="human" speed="14.83" pos="77.53" lane="loop_1" slope="0.00"/>
        <vehicle id="main0.2" x="93.73" y="0.00" angle="90.00" type="human" speed="14.45" pos="56.24" lane="loop_0" slope="0.00"/>
        <vehicle id="main0.3" x="30.53" y="0.00" angle="90.00" type="human" speed="3.79" pos="18.32" lane="loop_0" slope="0.00"/>
        <vehicle id="main0.4" x="12.69" y="0.00" angle="90.00" type="cav" speed="2.92" pos="7.61" lane="loop_0" slope="0.00"/>
        <vehicle id="main1.0" x="161.84" y="0.00" angle="90.00" type="cav" speed="13.85" pos="97.10" lane="loop_0" slope="0.00"/>
        <vehicle id="main2.0" x="68.01" y="3.20" angle="90.00" type="human" speed="8.42" pos="40.81" lane="loop_1" slope="0.00"/>
        <vehicle id="main2.1" x="42.26" y="3.20" angle="90.00" type="cav" speed="7.65" pos="25.36" lane="loop_1" slope="0.00"/>
        <vehicle id="main2.2" x="43.95" y="6.40" angle="90.00" type="human" speed="7.90" pos="26.37" lane="loop_2" slope="0.00"/>
        <vehicle id="main2.3" x="21.63" y="3.20" angle="90.00" type="cav" speed="5.41" pos="12.98" lane="loop_1" slope="0.00"/>
        <vehicle id="main3.0" x="212.42" y="3.20" angle="90.00" type="cav" speed="17.72" pos="127.45" lane="loop_1" slope="0.00"/>
        <vehicle id="main3.1" x="138.35" y="9.60" angle="90.00" type="human" speed="14.82" pos="83.01" lane="loop_3" slope="0.00"/>
        <vehicle id="main3.2" x="90.66" y="6.40" angle="90.00" type="cav" speed="16.40" pos="54.40" lane="loop_2" slope="0.00"/>
        <vehicle id="main3.3" x="17.76" y="6.40" angle="90.00" type="cav" speed="4.96" pos="10.66" lane="loop_2" slope="0.00"/>
    </timestep>
    <timestep time="8.00">
        <vehicle id="main0.0" x="205.61" y="0.00" angle="90.00" type="human" speed="14.64" pos="123.37" lane="loop_0" slope="0.00"/>
        <vehicle id="main0.1" x="141.37" y="3.20" angle="90.00" type="human" speed="14.58" pos="84.82" lane="loop_1" slope="0.00"/>
        <vehicle id="main0.2" x="105.94" y="0.00" angle="90.00" type="human" speed="14.65" pos="63.57" lane="loop_0" slope="0.00"/>
        <vehicle id="main0.3" x="33.68" y="0.00" angle="90.00" type="human" speed="3.79" pos="20.21" lane="loop_0" slope="0.00"/>
        <vehicle id="main0.4" x="15.52" y="0.00" angle="90.00" type="cav" speed="3.40" pos="9.31" lane="loop_0" slope="0.00"/>
        <vehicle id="main1.0" x="173.42" y="0.00" angle="90.00" type="cav" speed="13.90" pos="104.05" lane="loop_0" slope="0.00"/>
        <vehicle id="main2.0" x="75.46" y="3.20" angle="90.00" type="human" speed="8.94" pos="45.28" lane="loop_1" slope="0.00"/>
        <vehicle id="main2.1" x="49.12" y="0.00" angle="90.00" type="cav" speed="8.23" pos="29.47" lane="loop_0" slope="0.00"/>
        <vehicle id="main2.2" x="51.25" y="6.40" angle="90.00" type="human" speed="8.76" pos="30.75" lane="loop_2" slope="0.00"/>
        <vehicle id="main2.3" x="27.03" y="3.20" angle="90.00" type="cav" speed="6.49" pos="16.22" lane="loop_1" slope="0.00"/>
        <vehicle id="main2.4" x="8.50" y="6.40" angle="90.00" type="cav" speed="0.91" pos="5.10" lane="loop_2" slope="0.00"/>
        <vehicle id="main3.0" x="227.19" y="0.00" angle="90.00" type="cav" speed="17.72" pos="136.31" lane="loop_0" slope="0.00"/>
        <vehicle id="main3.1" x="150.53" y="9.60" angle="90.00" type="human" speed="14.62" pos="90.32" lane="loop_3" slope="0.00"/>
        <vehicle id="main3.2" x="105.37" y="6.40" angle="90.00" type="cav" speed="17.65" pos="63.22" lane="loop_2" slope="0.00"/>
        <vehicle id="main3.3" x="21.08" y="6.40" angle="90.00" type="cav" speed="3.98" pos="12.65" lane="loop_2" slope="0.00"/>
        <vehicle id="main3.4" x="8.50" y="9.60" angle="90.00" type="human" speed="7.69" pos="5.10" lane="loop_3" slope="0.00"/>
    </timestep>
    <timestep time="8.50">
        <vehicle id="main0.0" x="217.82" y="0.00" angle="90.00" type="human" speed="14.65" pos="130.69" lane="loop_0" slope="0.00"/>
        <vehicle id="main0.1" x="153.52" y="3.20" angle="90.00" type="human" speed="14.58" pos="92.11" lane="loop_1" slope="0.00"/>
        <vehicle id="main0.2" x="118.37" y="0.00" angle="90.00" type="human" speed="14.92" pos="71.02" lane="loop_0" slope="0.00"/>
        <vehicle id="main0.3" x="36.84" y="0.00" angle="90.00" type="human" speed="3.79" pos="22.10" lane="loop_0" slope="0.00"/>
        <vehicle id="main0.4" x="18.46" y="0.00" angle="90.00" type="cav" speed="3.53" pos="11.07" lane="loop_0" slope="0.00"/>
        <vehicle id="main1.0" x="185.03" y="0.00" angle="90.00" type="cav" speed="13.94" pos="111.02" lane="loop_0" slope="0.00"/>
        <vehicle id="main2.0" x="83.43" y="3.20" angle="90.00" type="human" speed="9.57" pos="50.06" lane="loop_1" slope="0.00"/>
        <vehicle id="main2.1" x="57.02" y="0.00" angle="90.00" type="cav" speed="9.48" pos="34.21" lane="loop_0" slope="0.00"/>
        <vehicle id="main2.2" x="59.14" y="6.40" angle="90.00" type="human" speed="9.47" pos="35.48" lane="loop_2" slope="0.00"/>
        <vehicle id="main2.3" x="33.48" y="3.20" angle="90.00" type="cav" speed="7.74" pos="20.09" lane="loop_1" slope="0.00"/>
        <vehicle id="main2.4" x="9.26" y="3.20" angle="90.00" type="cav" speed="0.91" pos="5.56" lane="loop_1" slope="0.00"/>
        <vehicle id="main3.0" x="242.99" y="0.00" angle="90.00" type="cav" speed="18.97" pos="145.80" lane="loop_0" slope="0.00"/>
        <vehicle id="main3.1" x="162.82" y="9.60" angle="90.00" type="human" speed="14.75" pos="97.69" lane="loop_3" slope="0.00"/>
        <vehicle id="main3.2" x="118.58" y="3.20" angle="90.00" type="cav" speed="15.85" pos="71.15" lane="loop_1" slope="0.00"/>
        <vehicle id="main3.3" x="23.59" y="6.40" angle="90.00" type="cav" speed="3.01" pos="14.15" lane="loop_2" slope="0.00"/>
        <vehicle id="main3.4" x="15.34" y="9.60" angle="90.00" type="human" speed="8.21" pos="9.20" lane="loop_3" slope="0.00"/>
    </timestep>
    <timestep time="9.00">
        <vehicle id="main0.0" x="230.31" y="0.00" angle="90.00" type="human" speed="14.99" pos="138.19" lane="loop_0" slope="0.00"/>
        <vehicle id="main0.1" x="165.75" y="3.20" angle="90.00" type="human" speed="14.67" pos="99.45" lane="loop_1" slope="0.00"/>
        <vehicle id="main0.2" x="130.65" y="0.00" angle="90.00" type="human" speed="14.73" pos="78.39" lane="loop_0" slope="0.00"/>
        <vehicle id="main0.3" x="39.99" y="0.00" angle="90.00" type="human" speed="3.79" pos="24.00" lane="loop_0" slope="0.00"/>
        <vehicle id="main0.4" x="21.47" y="0.00" angle="90.00" type="cav" speed="3.61" pos="12.88" lane="loop_0" slope="0.00"/>
        <vehicle id="main0.5" x="8.50" y="0.00" angle="90.00" type="human" speed="0.96" pos="5.10" lane="loop_0" slope="0.00"/>
        <vehicle id="main1.0" x="196.72" y="0.00" angle="90.00" type="cav" speed="14.03" pos="118.03" lane="loop_0" slope="0.00"/>
        <vehicle id="main2.0" x="91.95" y="3.20" angle="90.00" type="human" speed="10.22" pos="55.17" lane="loop_1" slope="0.00"/>
        <vehicle id="main2.1" x="65.96" y="0.00" angle="90.00" type="cav" speed="10.73" pos="39.58" lane="loop_0" slope="0.00"/>
        <vehicle id="main2.2" x="67.84" y="6.40" angle="90.00" type="human" speed="10.44" pos="40.70" lane="loop_2" slope="0.00"/>
        <vehicle id="main2.3" x="40.97" y="3.20" angle="90.00" type="cav" speed="8.99" pos="24.58" lane="loop_1" slope="0.00"/>
        <vehicle id="main2.4" x="11.07" y="3.20" angle="90.00" type="cav" speed="2.16" pos="6.64" lane="loop_1" slope="0.00"/>
        <vehicle id="main2.5" x="8.50" y="6.40" angle="90.00" type="human" speed="12.36" pos="5.10" lane="loop_2" slope="0.00"/>
        <vehicle id="main3.0" x="259.66" y="0.00" angle="90.00" type="cav" speed="20.00" pos="155.80" lane="loop_0" slope="0.00"/>
        <vehicle id="main3.1" x="174.95" y="9.60" angle="90.00" type="human" speed="14.55" pos="104.97" lane="loop_3" slope="0.00"/>
        <vehicle id="main3.2" x="130.50" y="3.20" angle="90.00" type="cav" speed="14.30" pos="78.30" lane="loop_1" slope="0.00"/>
        <vehicle id="main3.3" x="26.80" y="3.20" angle="90.00" type="cav" speed="3.85" pos="16.08" lane="loop_1" slope="0.00"/>
        <vehicle id="main3.4" x="22.69" y="9.60" angle="90.00" type="human" speed="8.82" pos="13.61" lane="loop_3" slope="0.00"/>
    </timestep>
    <timestep time="9.50">
        <vehicle id="main0.0" x="242.68" y="0.00" angle="90.00" type="human" speed="14.84" pos="145.61" lane="loop_0" slope="0.00"/>
        <vehicle id="main0.1" x="178.00" y="3.20" angle="90.00" type="human" speed="14.70" pos="106.80" lane="loop_1" slope="0.00"/>
        <vehicle id="main0.2" x="143.11" y="0.00" angle="90.00" type="human" speed="14.96" pos="85.87" lane="loop_0" slope="0.00"/>
        <vehicle id="main0.3" x="43.90" y="0.00" angle="90.00" type="human" speed="4.68" pos="26.34" lane="loop_0" slope="0.00"/>
        <vehicle id="main0.4" x="24.53" y="0.00" angle="90.00" type="cav" speed="3.67" pos="14.72" lane="loop_0" slope="0.00"/>
        <vehicle id="main0.5" x="9.29" y="0.00" angle="90.00" type="human" speed="0.95" pos="5.58" lane="loop_0" slope="0.00"/>
        <vehicle id="main1.0" x="208.73" y="0.00" angle="90.00" type="cav" speed="14.40" pos="125.24" lane="loop_0" slope="0.00"/>
        <vehicle id="main2.0" x="100.98" y="3.20" angle="90.00" type="human" speed="10.84" pos="60.59" lane="loop_1" slope="0.00"/>
        <vehicle id="main2.1" x="75.95" y="0.00" angle="90.00" type="cav" speed="11.98" pos="45.57" lane="loop_0" slope="0.00"/>
        <vehicle id="main2.2" x="77.22" y="6.40" angle="90.00" type="human" speed="11.25" pos="46.33" lane="loop_2" slope="0.00"/>
        <vehicle id="main2.3" x="48.91" y="3.20" angle="90.00" type="cav" speed="9.53" pos="29.35" lane="loop_1" slope="0.00"/>
        <vehicle id="main2.4" x="13.21" y="3.20" angle="90.00" type="cav" speed="2.58" pos="7.93" lane="loop_1" slope="0.00"/>
        <vehicle id="main2.5" x="19.23" y="6.40" angle="90.00" type="human" speed="12.87" pos="11.54" lane="loop_2" slope="0.00"/>
        <vehicle id="main3.0" x="276.33" y="0.00" angle="90.00" type="cav" speed="20.00" pos="165.80" lane="loop_0" slope="0.00"/>
        <vehicle id="main3.1" x="187.27" y="9.60" angle="90.00" type="human" speed="14.79" pos="112.36" lane="loop_3" slope="0.00"/>
        <vehicle id="main3.2" x="142.52" y="3.20" angle="90.00" type="cav" speed="14.42" pos="85.51" lane="loop_1" slope="0.00"/>
        <vehicle id="main3.3" x="31.05" y="3.20" angle="90.00" type="cav" speed="5.10" pos="18.63" lane="loop_1" slope="0.00"/>
        <vehicle id="main3.4" x="30.67" y="9.60" angle="90.00" type="human" speed="9.58" pos="18.40" lane="loop_3" slope="0.00"/>
    </timestep>
    <timestep time="10.00">
        <vehicle id="main0.0" x="254.88" y="0.00" angle="90.00" type="human" speed="14.64" pos="152.93" lane="loop_0" slope="0.00"/>