<?xml version="1.0" encoding="UTF-8"?>

<!-- generated on 2025-06-05 23:05:35 by Eclipse SUMO GUI Version 1.23.1
<sumoConfiguration xmlns:xsi="http://www.w3.org/2001/XMLSchema-instance" xsi:noNamespaceSchemaLocation="http://sumo.dlr.de/xsd/sumoConfiguration.xsd">

    <input>
        <net-file value="/home/miachou/IIV25_Final_project/lane_change_expts/resources/mp_network/mp.net.xml"/>
        <route-files value="/home/miachou/IIV25_Final_project/lane_change_expts/resources/mp_network/mp.rou.xml"/>
    </input>

    <output>
        <fcd-output value="/home/miachou/IIV25_Final_project/lane_change_expts/resources/mp_network/mp_fcd.xml"/>
        <tripinfo-output value="/home/miachou/IIV25_Final_project/lane_change_expts/resources/mp_network/mp_tripinfo.xml"/>
        <lanechange-output value="/home/miachou/IIV25_Final_project/lane_change_expts/resources/mp_network/mp_lc.xml"/>
    </output>

    <time>
        <begin value="0"/>
        <end value="3600"/>
        <step-length value="0.5"/>
    </time>

    <report>
        <verbose value="true"/>
    </report>

    <traci_server>
        <remote-port value="36179"/>
    </traci_server>

    <gui_only>
        <delay value="160"/>
    </gui_only>

</sumoConfiguration>
-->

<tripinfos xmlns:xsi="http://www.w3.org/2001/XMLSchema-instance" xsi:noNamespaceSchemaLocation="http://sumo.dlr.de/xsd/tripinfo_file.xsd">
    <tripinfo id="main3.0" depart="0.00" departLane="loop_3" departPos="5.10" departSpeed="9.83" departDelay="0.00" arrival="16.50" arrivalLane="loop_0" arrivalPos="300.00" arrivalSpeed="20.00" duration="16.50" routeLength="294.90" waitingTime="0.00" waitingCount="0" stopTime="0.00" timeLoss="0.90" rerouteNo="0" devices="tripinfo_main3.0 fcd_main3.0" vType="cav" speedFactor="0.89" vaporized=""/>
    <tripinfo id="main0.0" depart="0.00" departLane="loop_0" departPos="5.10" departSpeed="13.37" departDelay="0.00" arrival="20.00" arrivalLane="loop_0" arrivalPos="300.00" arrivalSpeed="14.61" duration="20.00" routeLength="294.90" waitingTime="0.00" waitingCount="0" stopTime="0.00" timeLoss="0.31" rerouteNo="0" devices="tripinfo_main0.0 fcd_main0.0" vType="human" speedFactor="0.84" vaporized=""/>
    <tripinfo id="main1.0" depart="0.00" departLane="loop_1" departPos="5.10" departSpeed="11.84" departDelay="0.00" arrival="21.50" arrivalLane="loop_0" arrivalPos="300.00" arrivalSpeed="18.40" duration="21.50" routeLength="294.90" waitingTime="0.00" waitingCount="0" stopTime="0.00" timeLoss="6.27" rerouteNo="0" devices="tripinfo_main1.0 fcd_main1.0" vType="cav" speedFactor="0.83" vaporized=""/>
    <tripinfo id="main3.1" depart="2.00" departLane="loop_3" departPos="5.10" departSpeed="11.15" departDelay="0.00" arrival="22.50" arrivalLane="loop_2" arrivalPos="300.00" arrivalSpeed="14.57" duration="20.50" routeLength="294.90" waitingTime="0.00" waitingCount="0" stopTime="0.00" timeLoss="0.54" rerouteNo="0" devices="tripinfo_main3.1 fcd_main3.1" vType="human" speedFactor="0.92" vaporized=""/>
    <tripinfo id="main0.1" depart="1.50" departLane="loop_0" departPos="5.10" departSpeed="8.85" departDelay="0.00" arrival="23.00" arrivalLane="loop_1" arrivalPos="300.00" arrivalSpeed="14.69" duration="21.50" routeLength="294.90" waitingTime="0.00" waitingCount="0" stopTime="0.00" timeLoss="1.45" rerouteNo="0" devices="tripinfo_main0.1 fcd_main0.1" vType="human" speedFactor="1.01" vaporized=""/>
    <tripinfo id="main0.2" depart="3.00" departLane="loop_0" departPos="5.10" departSpeed="8.68" departDelay="0.00" arrival="24.00" arrivalLane="loop_0" arrivalPos="300.00" arrivalSpeed="14.57" duration="21.00" routeLength="294.90" waitingTime="0.00" waitingCount="0" stopTime="0.00" timeLoss="1.31" rerouteNo="0" devices="tripinfo_main0.2 fcd_main0.2" vType="human" speedFactor="1.12" vaporized=""/>
    <tripinfo id="main3.2" depart="4.00" departLane="loop_3" departPos="5.10" departSpeed="9.32" departDelay="0.00" arrival="25.50" arrivalLane="loop_0" arrivalPos="300.00" arrivalSpeed="18.33" duration="21.50" routeLength="294.90" waitingTime="0.00" waitingCount="0" stopTime="0.00" timeLoss="6.36" rerouteNo="0" devices="tripinfo_main3.2 fcd_main3.2" vType="cav" speedFactor="0.93" vaporized=""/>
    <tripinfo id="main2.0" depart="0.00" departLane="loop_2" departPos="5.10" departSpeed="0.68" departDelay="0.00" arrival="26.50" arrivalLane="loop_1" arrivalPos="300.00" arrivalSpeed="14.56" duration="26.50" routeLength="294.90" waitingTime="0.00" waitingCount="0" stopTime="0.00" timeLoss="6.61" rerouteNo="0" devices="tripinfo_main2.0 fcd_main2.0" vType="human" speedFactor="1.00" vaporized=""/>
    <tripinfo id="main2.1" depart="3.50" departLane="loop_2" departPos="5.10" departSpeed="0.12" departDelay="1.70" arrival="27.00" arrivalLane="loop_0" arrivalPos="300.00" arrivalSpeed="17.13" duration="23.50" routeLength="294.90" waitingTime="0.00" waitingCount="0" stopTime="0.00" timeLoss="8.56" rerouteNo="0" devices="tripinfo_main2.1 fcd_main2.1" vType="cav" speedFactor="1.09" vaporized=""/>
    <tripinfo id="main2.2" depart="4.00" departLane="loop_2" departPos="5.10" departSpeed="5.09" departDelay="0.40" arrival="27.00" arrivalLane="loop_2" arrivalPos="300.00" arrivalSpeed="14.53" duration="23.00" routeLength="294.90" waitingTime="0.00" waitingCount="0" stopTime="0.00" timeLoss="3.23" rerouteNo="0" devices="tripinfo_main2.2 fcd_main2.2" vType="human" speedFactor="0.90" vaporized=""/>
    <tripinfo id="main2.3" depart="5.50" departLane="loop_2" departPos="5.10" departSpeed="2.37" departDelay="0.10" arrival="28.50" arrivalLane="loop_0" arrivalPos="300.00" arrivalSpeed="19.51" duration="23.00" routeLength="294.90" waitingTime="0.00" waitingCount="0" stopTime="0.00" timeLoss="7.75" rerouteNo="0" devices="tripinfo_main2.3 fcd_main2.3" vType="cav" speedFactor="0.94" vaporized=""/>
    <tripinfo id="main3.3" depart="6.00" departLane="loop_3" departPos="5.10" departSpeed="1.21" departDelay="0.00" arrival="29.50" arrivalLane="loop_0" arrivalPos="300.00" arrivalSpeed="20.00" duration="23.50" routeLength="294.90" waitingTime="0.00" waitingCount="0" stopTime="0.00" timeLoss="8.64" rerouteNo="0" devices="tripinfo_main3.3 fcd_main3.3" vType="cav" speedFactor="1.01" vaporized=""/>
    <tripinfo id="main3.4" depart="8.00" departLane="loop_3" departPos="5.10" departSpeed="7.69" departDelay="0.00" arrival="29.50" arrivalLane="loop_3" arrivalPos="300.00" arrivalSpeed="14.96" duration="21.50" routeLength="294.90" waitingTime="0.00" waitingCount="0" stopTime="0.00" timeLoss="1.45" rerouteNo="0" devices="tripinfo_main3.4 fcd_main3.4" vType="human" speedFactor="1.01" vaporized=""/>
    <tripinfo id="main2.5" depart="9.00" departLane="loop_2" departPos="5.10" departSpeed="12.36" departDelay="0.00" arrival="29.50" arrivalLane="loop_2" arrivalPos="300.00" arrivalSpeed="14.95" duration="20.50" routeLength="294.90" waitingTime="0.00" waitingCount="0" stopTime="0.00" timeLoss="0.46" rerouteNo="0" devices="tripinfo_main2.5 fcd_main2.5" vType="human" speedFactor="1.03" vaporized=""/>
    <tripinfo id="main0.4" depart="6.00" departLane="loop_0" departPos="5.10" departSpeed="0.42" departDelay="0.00" arrival="31.00" arrivalLane="loop_0" arrivalPos="300.00" arrivalSpeed="20.00" duration="25.00" routeLength="294.90" waitingTime="0.00" waitingCount="0" stopTime="0.00" timeLoss="9.92" rerouteNo="0" devices="tripinfo_main0.4 fcd_main0.4" vType="cav" speedFactor="1.08" vaporized=""/>
    <tripinfo id="main3.5" depart="10.00" departLane="loop_3" departPos="5.10" departSpeed="8.16" departDelay="0.00" arrival="31.00" arrivalLane="loop_3" arrivalPos="300.00" arrivalSpeed="14.88" duration="21.00" routeLength="294.90" waitingTime="0.00" waitingCount="0" stopTime="0.00" timeLoss="1.16" rerouteNo="0" devices="tripinfo_main3.5 fcd_main3.5" vType="human" speedFactor="1.13" vaporized=""/>
    <tripinfo id="main2.6" depart="11.00" departLane="loop_2" departPos="5.10" departSpeed="4.53" departDelay="0.20" arrival="33.50" arrivalLane="loop_2" arrivalPos="300.00" arrivalSpeed="14.84" duration="22.50" routeLength="294.90" waitingTime="0.00" waitingCount="0" stopTime="0.00" timeLoss="2.52" rerouteNo="0" devices="tripinfo_main2.6 fcd_main2.6" vType="human" speedFactor="1.15" vaporized=""/>
    <tripinfo id="main1.1" depart="12.00" departLane="loop_1" departPos="5.10" departSpeed="8.55" departDelay="0.00" arrival="33.50" arrivalLane="loop_1" arrivalPos="300.00" arrivalSpeed="14.83" duration="21.50" routeLength="294.90" waitingTime="0.00" waitingCount="0" stopTime="0.00" timeLoss="1.80" rerouteNo="0" devices="tripinfo_main1.1 fcd_main1.1" vType="human" speedFactor="0.99" vaporized=""/>
    <tripinfo id="main0.3" depart="4.50" departLane="loop_0" departPos="5.10" departSpeed="6.78" departDelay="0.00" arrival="34.50" arrivalLane="loop_0" arrivalPos="300.00" arrivalSpeed="14.78" duration="30.00" routeLength="294.90" waitingTime="0.00" waitingCount="0" stopTime="0.00" timeLoss="9.97" rerouteNo="0" devices="tripinfo_main0.3 fcd_main0.3" vType="human" speedFactor="1.04" vaporized=""/>
    <tripinfo id="main2.10" depart="18.00" departLane="loop_2" departPos="5.10" departSpeed="15.58" departDelay="0.00" arrival="35.50" arrivalLane="loop_0" arrivalPos="300.00" arrivalSpeed="17.13" duration="17.50" routeLength="294.90" waitingTime="0.00" waitingCount="0" stopTime="0.00" timeLoss="2.74" rerouteNo="0" devices="tripinfo_main2.10 fcd_main2.10" vType="cav" speedFactor="1.02" vaporized=""/>
    <tripinfo id="main3.6" depart="12.00" departLane="loop_3" departPos="5.10" departSpeed="0.45" departDelay="0.00" arrival="36.50" arrivalLane="loop_2" arrivalPos="300.00" arrivalSpeed="14.87" duration="24.50" routeLength="294.90" waitingTime="0.00" waitingCount="0" stopTime="0.00" timeLoss="4.62" rerouteNo="0" devices="tripinfo_main3.6 fcd_main3.6" vType="human" speedFactor="0.97" vaporized=""/>
    <tripinfo id="main2.9" depart="16.50" departLane="loop_2" departPos="5.10" departSpeed="18.01" departDelay="0.30" arrival="36.50" arrivalLane="loop_0" arrivalPos="300.00" arrivalSpeed="15.30" duration="20.00" routeLength="294.90" waitingTime="0.00" waitingCount="0" stopTime="0.00" timeLoss="3.90" rerouteNo="0" devices="tripinfo_main2.9 fcd_main2.9" vType="cav" speedFactor="0.77" vaporized=""/>
    <tripinfo id="main2.4" depart="8.00" departLane="loop_2" departPos="5.10" departSpeed="0.91" departDelay="0.80" arrival="38.00" arrivalLane="loop_0" arrivalPos="300.00" arrivalSpeed="17.54" duration="30.00" routeLength="294.90" waitingTime="0.00" waitingCount="0" stopTime="0.00" timeLoss="15.04" rerouteNo="0" devices="tripinfo_main2.4 fcd_main2.4" vType="cav" speedFactor="0.89" vaporized=""/>
    <tripinfo id="main3.7" depart="15.00" departLane="loop_3" departPos="5.10" departSpeed="2.92" departDelay="1.00" arrival="38.50" arrivalLane="loop_2" arrivalPos="300.00" arrivalSpeed="14.74" duration="23.50" routeLength="294.90" waitingTime="0.00" waitingCount="0" stopTime="0.00" timeLoss="3.58" rerouteNo="0" devices="tripinfo_main3.7 fcd_main3.7" vType="human" speedFactor="1.10" vaporized=""/>
    <tripinfo id="main2.8" depart="14.50" departLane="loop_2" departPos="5.10" departSpeed="3.36" departDelay="0.10" arrival="39.50" arrivalLane="loop_0" arrivalPos="300.00" arrivalSpeed="19.67" duration="25.00" routeLength="294.90" waitingTime="0.00" waitingCount="0" stopTime="0.00" timeLoss="8.88" rerouteNo="0" devices="tripinfo_main2.8 fcd_main2.8" vType="cav" speedFactor="0.83" vaporized=""/>
    <tripinfo id="main0.6" depart="15.00" departLane="loop_0" departPos="5.10" departSpeed="0.85" departDelay="6.00" arrival="40.50" arrivalLane="loop_1" arrivalPos="300.00" arrivalSpeed="14.50" duration="25.50" routeLength="294.90" waitingTime="0.00" waitingCount="0" stopTime="0.00" timeLoss="5.73" rerouteNo="0" devices="tripinfo_main0.6 fcd_main0.6" vType="human" speedFactor="0.87" vaporized=""/>
    <tripinfo id="main2.7" depart="13.00" departLane="loop_2" departPos="5.10" departSpeed="2.59" departDelay="0.40" arrival="41.00" arrivalLane="loop_0" arrivalPos="300.00" arrivalSpeed="18.48" duration="28.00" routeLength="294.90" waitingTime="0.00" waitingCount="0" stopTime="0.00" timeLoss="12.87" rerouteNo="0" devices="tripinfo_main2.7 fcd_main2.7" vType="cav" speedFactor="1.02" vaporized=""/>
    <tripinfo id="main3.8" depart="17.00" departLane="loop_3" departPos="5.10" departSpeed="2.65" departDelay="1.00" arrival="41.00" arrivalLane="loop_2" arrivalPos="300.00" arrivalSpeed="14.83" duration="24.00" routeLength="294.90" waitingTime="0.00" waitingCount="0" stopTime="0.00" timeLoss="3.96" rerouteNo="0" devices="tripinfo_main3.8 fcd_main3.8" vType="human" speedFactor="1.07" vaporized=""/>
    <tripinfo id="main3.11" depart="22.00" departLane="loop_3" departPos="5.10" departSpeed="6.30" departDelay="0.00" arrival="42.00" arrivalLane="loop_0" arrivalPos="300.00" arrivalSpeed="19.40" duration="20.00" routeLength="294.90" waitingTime="0.00" waitingCount="0" stopTime="0.00" timeLoss="4.35" rerouteNo="0" devices="tripinfo_main3.11 fcd_main3.11" vType="cav" speedFactor="0.90" vaporized=""/>
    <tripinfo id="main3.10" depart="20.00" departLane="loop_3" departPos="5.10" departSpeed="4.71" departDelay="0.00" arrival="42.50" arrivalLane="loop_2" arrivalPos="300.00" arrivalSpeed="14.84" duration="22.50" routeLength="294.90" waitingTime="0.00" waitingCount="0" stopTime="0.00" timeLoss="2.64" rerouteNo="0" devices="tripinfo_main3.10 fcd_main3.10" vType="human" speedFactor="1.05" vaporized=""/>
    <tripinfo id="main0.5" depart="9.00" departLane="loop_0" departPos="5.10" departSpeed="0.96" departDelay="1.50" arrival="43.50" arrivalLane="loop_0" arrivalPos="300.00" arrivalSpeed="14.99" duration="34.50" routeLength="294.90" waitingTime="1.50" waitingCount="1" stopTime="0.00" timeLoss="14.67" rerouteNo="0" devices="tripinfo_main0.5 fcd_main0.5" vType="human" speedFactor="1.03" vaporized=""/>
    <tripinfo id="main3.12" depart="24.00" departLane="loop_3" departPos="5.10" departSpeed="8.28" departDelay="0.00" arrival="44.50" arrivalLane="loop_0" arrivalPos="300.00" arrivalSpeed="14.45" duration="20.50" routeLength="294.90" waitingTime="0.00" waitingCount="0" stopTime="0.00" timeLoss="5.60" rerouteNo="0" devices="tripinfo_main3.12 fcd_main3.12" vType="cav" speedFactor="1.00" vaporized=""/>
    <tripinfo id="main3.9" depart="19.50" departLane="loop_3" departPos="5.10" departSpeed="1.34" departDelay="1.50" arrival="46.00" arrivalLane="loop_0" arrivalPos="300.00" arrivalSpeed="15.94" duration="26.50" routeLength="294.90" waitingTime="0.00" waitingCount="0" stopTime="0.00" timeLoss="11.32" rerouteNo="0" devices="tripinfo_main3.9 fcd_main3.9" vType="cav" speedFactor="0.88" vaporized=""/>
    <tripinfo id="main0.7" depart="17.50" departLane="loop_0" departPos="5.10" departSpeed="6.74" departDelay="7.00" arrival="46.50" arrivalLane="loop_1" arrivalPos="300.00" arrivalSpeed="14.99" duration="29.00" routeLength="294.90" waitingTime="0.00" waitingCount="0" stopTime="0.00" timeLoss="9.13" rerouteNo="0" devices="tripinfo_main0.7 fcd_main0.7" vType="human" speedFactor="0.89" vaporized=""/>
    <tripinfo id="main3.13" depart="26.00" departLane="loop_3" departPos="5.10" departSpeed="9.38" departDelay="0.00" arrival="46.50" arrivalLane="loop_2" arrivalPos="300.00" arrivalSpeed="14.86" duration="20.50" routeLength="294.90" waitingTime="0.00" waitingCount="0" stopTime="0.00" timeLoss="0.82" rerouteNo="0" devices="tripinfo_main3.13 fcd_main3.13" vType="human" speedFactor="0.91" vaporized=""/>
    <tripinfo id="main2.12" depart="23.00" departLane="loop_2" departPos="5.10" departSpeed="3.76" departDelay="1.40" arrival="47.00" arrivalLane="loop_0" arrivalPos="300.00" arrivalSpeed="16.79" duration="24.00" routeLength="294.90" waitingTime="0.00" waitingCount="0" stopTime="0.00" timeLoss="9.19" rerouteNo="0" devices="tripinfo_main2.12 fcd_main2.12" vType="cav" speedFactor="1.10" vaporized=""/>
    <tripinfo id="main0.8" depart="19.00" departLane="loop_0" departPos="5.10" departSpeed="0.42" departDelay="7.00" arrival="48.00" arrivalLane="loop_1" arrivalPos="300.00" arrivalSpeed="14.72" duration="29.00" routeLength="294.90" waitingTime="0.00" waitingCount="0" stopTime="0.00" timeLoss="9.20" rerouteNo="0" devices="tripinfo_main0.8 fcd_main0.8" vType="human" speedFactor="1.12" vaporized=""/>
    <tripinfo id="main2.13" depart="23.50" departLane="loop_2" departPos="5.10" departSpeed="5.33" departDelay="0.10" arrival="48.50" arrivalLane="loop_2" arrivalPos="300.00" arrivalSpeed="14.56" duration="25.00" routeLength="294.90" waitingTime="0.00" waitingCount="0" stopTime="0.00" timeLoss="5.00" rerouteNo="0" devices="tripinfo_main2.13 fcd_main2.13" vType="human" speedFactor="1.02" vaporized=""/>
    <tripinfo id="main0.9" depart="22.00" departLane="loop_0" departPos="5.10" departSpeed="0.70" departDelay="8.50" arrival="49.00" arrivalLane="loop_0" arrivalPos="300.00" arrivalSpeed="14.64" duration="27.00" routeLength="294.90" waitingTime="0.00" waitingCount="0" stopTime="0.00" timeLoss="6.88" rerouteNo="0" devices="tripinfo_main0.9 fcd_main0.9" vType="human" speedFactor="0.94" vaporized=""/>
    <tripinfo id="main2.11" depart="21.00" departLane="loop_2" departPos="5.10" departSpeed="3.11" departDelay="1.20" arrival="49.50" arrivalLane="loop_1" arrivalPos="300.00" arrivalSpeed="14.76" duration="28.50" routeLength="294.90" waitingTime="0.00" waitingCount="0" stopTime="0.00" timeLoss="8.78" rerouteNo="0" devices="tripinfo_main2.11 fcd_main2.11" vType="human" speedFactor="1.17" vaporized=""/>
    <tripinfo id="main2.14" depart="25.50" departLane="loop_2" departPos="5.10" departSpeed="1.57" departDelay="0.30" arrival="49.50" arrivalLane="loop_3" arrivalPos="300.00" arrivalSpeed="14.64" duration="24.00" routeLength="294.90" waitingTime="0.00" waitingCount="0" stopTime="0.00" timeLoss="4.29" rerouteNo="0" devices="tripinfo_main2.14 fcd_main2.14" vType="human" speedFactor="0.96" vaporized=""/>
    <tripinfo id="main2.15" depart="28.00" departLane="loop_2" departPos="5.10" departSpeed="9.34" departDelay="1.00" arrival="50.00" arrivalLane="loop_2" arrivalPos="300.00" arrivalSpeed="14.66" duration="22.00" routeLength="294.90" waitingTime="0.00" waitingCount="0" stopTime="0.00" timeLoss="2.09" rerouteNo="0" devices="tripinfo_main2.15 fcd_main2.15" vType="human" speedFactor="1.02" vaporized=""/>
    <tripinfo id="main0.10" depart="24.50" departLane="loop_0" departPos="5.10" departSpeed="1.49" departDelay="9.50" arrival="50.50" arrivalLane="loop_0" arrivalPos="300.00" arrivalSpeed="14.60" duration="26.00" routeLength="294.90" waitingTime="0.00" waitingCount="0" stopTime="0.00" timeLoss="5.96" rerouteNo="0" devices="tripinfo_main0.10 fcd_main0.10" vType="human" speedFactor="1.03" vaporized=""/>
    <tripinfo id="main1.2" depart="24.50" departLane="loop_1" departPos="5.10" departSpeed="2.68" departDelay="0.50" arrival="51.00" arrivalLane="loop_1" arrivalPos="300.00" arrivalSpeed="14.50" duration="26.50" routeLength="294.90" waitingTime="0.00" waitingCount="0" stopTime="0.00" timeLoss="6.83" rerouteNo="0" devices="tripinfo_main1.2 fcd_main1.2" vType="human" speedFactor="1.12" vaporized=""/>
    <tripinfo id="main3.14" depart="28.00" departLane="loop_3" departPos="5.10" departSpeed="2.66" departDelay="0.00" arrival="51.50" arrivalLane="loop_0" arrivalPos="300.00" arrivalSpeed="17.14" duration="23.50" routeLength="294.90" waitingTime="0.00" waitingCount="0" stopTime="0.00" timeLoss="8.59" rerouteNo="0" devices="tripinfo_main3.14 fcd_main3.14" vType="cav" speedFactor="0.93" vaporized=""/>
    <tripinfo id="main3.15" depart="30.00" departLane="loop_3" departPos="5.10" departSpeed="10.14" departDelay="0.00" arrival="51.50" arrivalLane="loop_3" arrivalPos="300.00" arrivalSpeed="14.94" duration="21.50" routeLength="294.90" waitingTime="0.00" waitingCount="0" stopTime="0.00" timeLoss="1.39" rerouteNo="0" devices="tripinfo_main3.15 fcd_main3.15" vType="human" speedFactor="0.92" vaporized=""/>
    <tripinfo id="main2.16" depart="29.00" departLane="loop_2" departPos="5.10" departSpeed="6.01" departDelay="0.20" arrival="53.00" arrivalLane="loop_1" arrivalPos="300.00" arrivalSpeed="14.70" duration="24.00" routeLength="294.90" waitingTime="0.00" waitingCount="0" stopTime="0.00" timeLoss="4.29" rerouteNo="0" devices="tripinfo_main2.16 fcd_main2.16" vType="human" speedFactor="1.12" vaporized=""/>
    <tripinfo id="main0.11" depart="27.50" departLane="loop_0" departPos="5.10" departSpeed="2.56" departDelay="11.00" arrival="53.50" arrivalLane="loop_0" arrivalPos="300.00" arrivalSpeed="14.78" duration="26.00" routeLength="294.90" waitingTime="0.00" waitingCount="0" stopTime="0.00" timeLoss="6.01" rerouteNo="0" devices="tripinfo_main0.11 fcd_main0.11" vType="human" speedFactor="1.04" vaporized=""/>
    <tripinfo id="main3.16" depart="32.00" departLane="loop_3" departPos="5.10" departSpeed="5.57" departDelay="0.00" arrival="54.00" arrivalLane="loop_3" arrivalPos="300.00" arrivalSpeed="14.99" duration="22.00" routeLength="294.90" waitingTime="0.00" waitingCount="0" stopTime="0.00" timeLoss="1.93" rerouteNo="0" devices="tripinfo_main3.16 fcd_main3.16" vType="human" speedFactor="1.02" vaporized=""/>
    <tripinfo id="main2.17" depart="31.00" departLane="loop_2" departPos="5.10" departSpeed="1.86" departDelay="0.40" arrival="54.50" arrivalLane="loop_2" arrivalPos="300.00" arrivalSpeed="14.58" duration="23.50" routeLength="294.90" waitingTime="0.00" waitingCount="0" stopTime="0.00" timeLoss="3.76" rerouteNo="0" devices="tripinfo_main2.17 fcd_main2.17" vType="human" speedFactor="1.09" vaporized=""/>
    <tripinfo id="main0.12" depart="30.00" departLane="loop_0" departPos="5.10" departSpeed="3.82" departDelay="12.00" arrival="55.00" arrivalLane="loop_0" arrivalPos="300.00" arrivalSpeed="14.69" duration="25.00" routeLength="294.90" waitingTime="0.00" waitingCount="0" stopTime="0.00" timeLoss="5.07" rerouteNo="0" devices="tripinfo_main0.12 fcd_main0.12" vType="human" speedFactor="0.90" vaporized=""/>
    <tripinfo id="main3.17" depart="34.00" departLane="loop_3" departPos="5.10" departSpeed="8.32" departDelay="0.00" arrival="55.50" arrivalLane="loop_3" arrivalPos="300.00" arrivalSpeed="14.62" duration="21.50" routeLength="294.90" waitingTime="0.00" waitingCount="0" stopTime="0.00" timeLoss="1.55" rerouteNo="0" devices="tripinfo_main3.17 fcd_main3.17" vType="human" speedFactor="0.98" vaporized=""/>
    <tripinfo id="main0.13" depart="32.00" departLane="loop_0" departPos="5.10" departSpeed="2.12" departDelay="12.50" arrival="56.00" arrivalLane="loop_1" arrivalPos="300.00" arrivalSpeed="14.87" duration="24.00" routeLength="294.90" waitingTime="0.00" waitingCount="0" stopTime="0.00" timeLoss="3.96" rerouteNo="0" devices="tripinfo_main0.13 fcd_main0.13" vType="human" speedFactor="1.06" vaporized=""/>
    <tripinfo id="main0.14" depart="34.00" departLane="loop_0" departPos="5.10" departSpeed="2.32" departDelay="13.00" arrival="56.50" arrivalLane="loop_0" arrivalPos="300.00" arrivalSpeed="18.64" duration="22.50" routeLength="294.90" waitingTime="0.00" waitingCount="0" stopTime="0.00" timeLoss="7.38" rerouteNo="0" devices="tripinfo_main0.14 fcd_main0.14" vType="cav" speedFactor="1.00" vaporized=""/>
    <tripinfo id="main3.18" depart="36.00" departLane="loop_3" departPos="5.10" departSpeed="10.82" departDelay="0.00" arrival="57.00" arrivalLane="loop_3" arrivalPos="300.00" arrivalSpeed="14.83" duration="21.00" routeLength="294.90" waitingTime="0.00" waitingCount="0" stopTime="0.00" timeLoss="1.09" rerouteNo="0" devices="tripinfo_main3.18 fcd_main3.18" vType="human" speedFactor="0.86" vaporized=""/>
    <tripinfo id="main2.18" depart="33.00" departLane="loop_2" departPos="5.10" departSpeed="1.76" departDelay="0.60" arrival="57.50" arrivalLane="loop_2" arrivalPos="300.00" arrivalSpeed="14.60" duration="24.50" routeLength="294.90" waitingTime="0.00" waitingCount="0" stopTime="0.00" timeLoss="4.37" rerouteNo="0" devices="tripinfo_main2.18 fcd_main2.18" vType="human" speedFactor="1.08" vaporized=""/>
    <tripinfo id="main2.19" depart="35.50" departLane="loop_2" departPos="5.10" departSpeed="2.13" departDelay="1.30" arrival="57.50" arrivalLane="loop_0" arrivalPos="300.00" arrivalSpeed="19.86" duration="22.00" routeLength="294.90" waitingTime="0.00" waitingCount="0" stopTime="0.00" timeLoss="7.13" rerouteNo="0" devices="tripinfo_main2.19 fcd_main2.19" vType="cav" speedFactor="0.94" vaporized=""/>
    <tripinfo id="main0.15" depart="36.00" departLane="loop_0" departPos="5.10" departSpeed="3.13" departDelay="13.50" arrival="58.50" arrivalLane="loop_0" arrivalPos="300.00" arrivalSpeed="17.19" duration="22.50" routeLength="294.90" waitingTime="0.00" waitingCount="0" stopTime="0.00" timeLoss="7.22" rerouteNo="0" devices="tripinfo_main0.15 fcd_main0.15" vType="cav" speedFactor="0.96" vaporized=""/>
    <tripinfo id="main3.19" depart="38.00" departLane="loop_3" departPos="5.10" departSpeed="13.44" departDelay="0.00" arrival="58.50" arrivalLane="loop_3" arrivalPos="300.00" arrivalSpeed="14.69" duration="20.50" routeLength="294.90" waitingTime="0.00" waitingCount="0" stopTime="0.00" timeLoss="0.71" rerouteNo="0" devices="tripinfo_main3.19 fcd_main3.19" vType="human" speedFactor="1.10" vaporized=""/>
    <tripinfo id="main2.20" depart="36.00" departLane="loop_2" departPos="5.10" departSpeed="1.54" departDelay="0.00" arrival="60.00" arrivalLane="loop_2" arrivalPos="300.00" arrivalSpeed="14.58" duration="24.00" routeLength="294.90" waitingTime="0.00" waitingCount="0" stopTime="0.00" timeLoss="4.18" rerouteNo="0" devices="tripinfo_main2.20 fcd_main2.20" vType="human" speedFactor="1.06" vaporized=""/>
    <tripinfo id="main3.20" depart="40.00" departLane="loop_3" departPos="5.10" departSpeed="13.78" departDelay="0.00" arrival="60.00" arrivalLane="loop_3" arrivalPos="300.00" arrivalSpeed="14.53" duration="20.00" routeLength="294.90" waitingTime="0.00" waitingCount="0" stopTime="0.00" timeLoss="0.32" rerouteNo="0" devices="tripinfo_main3.20 fcd_main3.20" vType="human" speedFactor="0.95" vaporized=""/>
    <tripinfo id="main1.3" depart="37.50" departLane="loop_1" departPos="5.10" departSpeed="2.76" departDelay="1.50" arrival="61.50" arrivalLane="loop_1" arrivalPos="300.00" arrivalSpeed="14.68" duration="24.00" routeLength="294.90" waitingTime="0.00" waitingCount="0" stopTime="0.00" timeLoss="3.96" rerouteNo="0" devices="tripinfo_main1.3 fcd_main1.3" vType="human" speedFactor="1.05" vaporized=""/>
    <tripinfo id="main0.16" depart="38.50" departLane="loop_0" departPos="5.10" departSpeed="2.10" departDelay="14.50" arrival="62.50" arrivalLane="loop_0" arrivalPos="300.00" arrivalSpeed="14.86" duration="24.00" routeLength="294.90" waitingTime="0.00" waitingCount="0" stopTime="0.00" timeLoss="4.23" rerouteNo="0" devices="tripinfo_main0.16 fcd_main0.16" vType="human" speedFactor="1.00" vaporized=""/>
    <tripinfo id="main2.21" depart="38.50" departLane="loop_2" departPos="5.10" departSpeed="2.55" departDelay="0.70" arrival="62.50" arrivalLane="loop_2" arrivalPos="300.00" arrivalSpeed="14.63" duration="24.00" routeLength="294.90" waitingTime="0.00" waitingCount="0" stopTime="0.00" timeLoss="4.11" rerouteNo="0" devices="tripinfo_main2.21 fcd_main2.21" vType="human" speedFactor="1.14" vaporized=""/>
    <tripinfo id="main3.21" depart="42.00" departLane="loop_3" departPos="5.10" departSpeed="7.31" departDelay="0.00" arrival="63.00" arrivalLane="loop_3" arrivalPos="300.00" arrivalSpeed="14.83" duration="21.00" routeLength="294.90" waitingTime="0.00" waitingCount="0" stopTime="0.00" timeLoss="1.30" rerouteNo="0" devices="tripinfo_main3.21 fcd_main3.21" vType="human" speedFactor="0.98" vaporized=""/>
    <tripinfo id="main0.17" depart="41.00" departLane="loop_0" departPos="5.10" departSpeed="1.29" departDelay="15.50" arrival="64.00" arrivalLane="loop_0" arrivalPos="300.00" arrivalSpeed="18.68" duration="23.00" routeLength="294.90" waitingTime="0.00" waitingCount="0" stopTime="0.00" timeLoss="7.97" rerouteNo="0" devices="tripinfo_main0.17 fcd_main0.17" vType="cav" speedFactor="0.99" vaporized=""/>
    <tripinfo id="main2.22" depart="41.00" departLane="loop_2" departPos="5.10" departSpeed="1.72" departDelay="1.40" arrival="65.00" arrivalLane="loop_1" arrivalPos="300.00" arrivalSpeed="14.68" duration="24.00" routeLength="294.90" waitingTime="0.00" waitingCount="0" stopTime="0.00" timeLoss="3.99" rerouteNo="0" devices="tripinfo_main2.22 fcd_main2.22" vType="human" speedFactor="0.97" vaporized=""/>
    <tripinfo id="main2.23" depart="43.50" departLane="loop_2" departPos="5.10" departSpeed="3.07" departDelay="2.10" arrival="65.50" arrivalLane="loop_0" arrivalPos="300.00" arrivalSpeed="17.40" duration="22.00" routeLength="294.90" waitingTime="0.00" waitingCount="0" stopTime="0.00" timeLoss="6.99" rerouteNo="0" devices="tripinfo_main2.23 fcd_main2.23" vType="cav" speedFactor="1.08" vaporized=""/>
    <tripinfo id="main3.22" depart="44.00" departLane="loop_3" departPos="5.10" departSpeed="6.67" departDelay="0.00" arrival="65.50" arrivalLane="loop_3" arrivalPos="300.00" arrivalSpeed="14.98" duration="21.50" routeLength="294.90" waitingTime="0.00" waitingCount="0" stopTime="0.00" timeLoss="1.52" rerouteNo="0" devices="tripinfo_main3.22 fcd_main3.22" vType="human" speedFactor="0.87" vaporized=""/>
    <tripinfo id="main2.24" depart="44.00" departLane="loop_2" departPos="5.10" departSpeed="5.77" departDelay="0.80" arrival="66.50" arrivalLane="loop_1" arrivalPos="300.00" arrivalSpeed="14.73" duration="22.50" routeLength="294.90" waitingTime="0.00" waitingCount="0" stopTime="0.00" timeLoss="2.59" rerouteNo="0" devices="tripinfo_main2.24 fcd_main2.24" vType="human" speedFactor="1.25" vaporized=""/>
    <tripinfo id="main0.18" depart="43.50" departLane="loop_0" departPos="5.10" departSpeed="4.00" departDelay="16.50" arrival="68.00" arrivalLane="loop_0" arrivalPos="300.00" arrivalSpeed="14.72" duration="24.50" routeLength="294.90" waitingTime="0.00" waitingCount="0" stopTime="0.00" timeLoss="4.56" rerouteNo="0" devices="tripinfo_main0.18 fcd_main0.18" vType="human" speedFactor="0.95" vaporized=""/>